416
Properties=species:S:1:pos:R:3:forces:R:3 energy=-155676.03125 pbc="F F F"
Br      13.72749792       7.43663956      14.81304331      -0.00063416      -0.00221919      -0.00447978
Br      32.85607930      19.07746530      10.77352199      -0.00463115      -0.00274235       0.00380280
Br      17.36010548      21.53099544       9.41275630      -0.00034672      -0.00133429       0.00016417
Br      16.16745809      17.83781729      25.64682202      -0.00020605      -0.00014035       0.00021002
Br      19.34111362      17.47760276      21.73970643       0.00171895      -0.00223012      -0.00483553
Br      33.72746135      12.99777623      10.78820857       0.00497892       0.00128030      -0.00109992
Br      18.45318210      20.96620873      23.64883022       0.00022490      -0.00011396       0.00285470
Br      14.21884061      18.86268977      33.67076695      -0.00039156      -0.00198540      -0.00200677
Br      11.42868889      12.13862585      32.36569597      -0.00812788      -0.00222148       0.00224330
Br      14.31614146      12.23597122      28.99688556       0.00525550       0.00729414       0.00542446
Br      14.27793202      15.44869478      31.07211195      -0.00119342      -0.00309886      -0.00011745
Br       9.26326452      29.92454325      29.39425183      -0.00772615       0.00085682      -0.00131686
Br      15.82255328      17.03031719      19.26709506      -0.00121010      -0.00465983       0.00069994
Br      21.66542114      18.55197684      18.90218055      -0.00106307      -0.00056424      -0.00045452
Br      23.24818555      17.89408765      15.41981705       0.00094749       0.00354579       0.00268329
Br      24.18811994      21.28339357      17.26966514      -0.00854609      -0.00044405       0.00033427
Br      22.33883111      12.24745160      18.61288430      -0.00007621       0.00030040       0.00123147
Br      25.55472357      10.56902441      15.75101545      -0.00481045       0.00130530      -0.00138670
Br      25.01118581      15.27612956      17.93221662       0.00042914      -0.00176532      -0.00269277
Br      19.45487437      17.39601847      15.83682141      -0.00321674      -0.00184347      -0.00400619
Br      11.85970060      17.71145721      28.02954845      -0.00513029       0.00244298       0.00964748
Br      17.91757399      20.60317408      17.65874755       0.00176767       0.00251558      -0.00056522
Br      25.56785944       9.32595558      19.46928766      -0.00221735       0.00156040      -0.00005159
Br      33.61555929      19.85145164      22.76783760       0.00142495      -0.00067133      -0.01261646
Br      16.42787930      12.13180468      19.98330400      -0.00184431       0.00038271      -0.00127120
Br      10.19614885      17.29488879      24.65412680       0.00061522       0.00158633       0.00163460
Br      13.40066228      17.52886996      22.18328617       0.00214561       0.00210594      -0.00237336
Br      34.75703926      14.33400104      23.59985840       0.00520703       0.00196280      -0.00355519
Br      19.92335314      29.55615131      17.02167669       0.00344776       0.00497361      -0.00084725
Br      22.27531300      29.95252128      13.97408360       0.00206719      -0.00033526       0.00192598
Br      23.00732605      33.00037751      16.86360006       0.00178601       0.00117329      -0.00051864
Br      20.69925941      24.14498769      16.94025162      -0.00265833       0.00205564       0.00188014
Br      24.40236510      24.23452457      14.61593782      -0.00764570      -0.00163352       0.00403154
Br      23.50408595      27.17358889      17.97994766       0.00301223      -0.00689733       0.00182492
Br      22.17345539      18.77451896      24.85458447       0.00193566      -0.00078953       0.00025653
Br      25.21309514      18.53280797      21.02396082       0.00349221      -0.00351925       0.00384183
Br      24.82074738      21.79375857      23.66544896       0.00038145      -0.00273599       0.00076877
Br      22.90467698      12.65843554      25.27849309      -0.00268393       0.00137311       0.00018521
Br      25.52581748      12.68953465      21.46209376      -0.00001611      -0.00095556       0.00359558
Br      24.84449968      15.77252695      23.60665148       0.00301103      -0.00129981       0.00032799
Br      13.53152291      27.92693311      11.72721930       0.00067400       0.00218804       0.00017497
Br      16.23026238      28.42726138       8.25056427       0.00211024       0.00443396       0.00295729
Br      26.40152282      10.08250078      25.00979461       0.00088764       0.00156543       0.00006047
Br      16.14310787      31.48452541      11.09157468       0.00195172       0.00463939      -0.00088126
Br      16.75705582      25.35821623      10.69411318       0.00272298      -0.00048789      -0.00097324
Br      12.82624681      20.66101222      25.39850821       0.00122090       0.00294217       0.00019305
Br      19.24763301       9.94577417      16.74032605      -0.00084415       0.00130677      -0.00192999
Br      14.60922501      30.95979210      23.20583424      -0.00346931      -0.00275891       0.00189137
Br      17.16794647      30.40534152      20.19480540       0.00001489       0.00090266      -0.00098865
Br      17.95892891      33.04613460      23.38973503       0.00160204       0.00533333      -0.00203477
Br      20.56786262      29.81929154      23.05127503      -0.00093450       0.00092967      -0.00126097
Br      23.11775262      30.26821524      19.95811013      -0.00009542      -0.00115727      -0.00440894
Br      23.07755931      33.51125082      22.78577100       0.00093314      -0.00383179      -0.00429336
Br      21.31022706      24.68550459      23.87020268      -0.00124581      -0.00140389       0.00319934
Br      23.61669659      24.29553461      20.55808711      -0.00300195      -0.00239145       0.00077093
Br      24.69961374      27.77820030      23.20880735      -0.00150643      -0.00206440       0.00444457
Br      22.54826730      19.06225913      29.56412934       0.00049190      -0.00069115      -0.00037378
Br      25.46887596      18.03983545      27.07874712      -0.00347379       0.00438230      -0.00255106
Br      25.20971187      22.29335369      29.31578886      -0.00358901       0.00088894       0.00390315
Br      23.44626577      13.14579963      30.87201486      -0.00337944      -0.00280474       0.00418708
Br      26.18549556      13.64868682      27.45313752      -0.00033999      -0.00050497      -0.00322649
Br      25.73234739      16.40129237      30.50722968       0.00012376      -0.00141513       0.00162964
Br       9.48624453      23.03451097      24.67986001       0.00026342      -0.00380092       0.00111460
Br      12.14854185      23.39651120      21.43116042       0.00348608      -0.00062262       0.00323801
Br      27.40552453      10.63084072      30.31405013      -0.00155684       0.00540997      -0.00092031
Br      12.48005404      26.63457073      24.22238490       0.00147373      -0.00081163      -0.00083017
Br      13.38700193      21.24639198      30.01510827      -0.00450161      -0.00661612       0.00103988
Br      18.99613882      14.58211602      18.37363405      -0.00129084      -0.00684846       0.00551175
Br      15.35051736      23.31510563      23.36639948       0.00147153       0.00309794       0.00136071
Br      18.72631221      23.45481526      20.71840873      -0.00304961       0.00335279       0.00393815
Br      17.61955940      26.93678268      22.78691507      -0.00143739      -0.00223310       0.00091827
Br      21.07993773      30.35733420      28.89183487       0.00029894      -0.00269127       0.00183761
Br      23.87485028      30.51760300      25.86798440      -0.00060552       0.00385527       0.00194684
Br      23.41224143      33.96305290      28.27443109      -0.00062773      -0.00005209       0.00231151
Br      21.73959938      24.95678697      29.57291635       0.00206723       0.00087610       0.00289239
Br      24.88314597      24.74166412      26.49738254      -0.00050423       0.00162879      -0.00025952
Br      24.07386186      28.06128371      28.72406533      -0.00022869       0.00373543       0.00125197
Br      16.54532685      18.55174049      29.94147938       0.00079253      -0.00345059      -0.00139814
Br      25.76289762      19.62206599      32.71776533      -0.00015731       0.00186123      -0.00045615
Br      19.37836430      19.76985038      27.24469447       0.00124198      -0.00433318      -0.00099520
Br      19.41172876      22.04785346      30.19246707       0.00207277      -0.00345669      -0.00349308
Br      19.71597329       8.97784589      20.38074809       0.00058557      -0.00200434      -0.00199258
Br      27.72732593      13.97831966      33.37109479      -0.00178965       0.00134787      -0.00094347
Br       8.89280362      21.93366090      19.16259560      -0.00523227      -0.00076605       0.00134621
Br      20.20700327       9.37507723      24.75192792       0.00133267       0.00691046       0.00320429
Br       9.81987316      16.78740199      20.32758674      -0.00121500       0.00378792      -0.00443969
Br      23.82727506      30.92160207      31.85431620      -0.00226764      -0.00068640       0.00170826
Br      11.06733074      16.51828327      16.73010311      -0.00331908      -0.00394742       0.00315764
Br      12.33850201      19.93652397      18.66538332       0.00242302      -0.00149748      -0.00010543
Br      24.59516644      25.40353136      32.48300122       0.00030639      -0.00119946       0.00177881
Br      13.94473071      28.62968405      17.60380227      -0.00483063       0.00025669       0.00003955
Br      16.75270171      28.36800203      14.37806516      -0.00292502       0.00093239      -0.00009174
Br      16.19621838      32.16796017      16.51253646       0.00119738       0.00144634       0.00152136
Br      14.78714574      23.40303037      18.48121622      -0.00048313       0.00001616      -0.00024537
Br      10.87158717      11.72145582      26.12994846      -0.00244728       0.00194173      -0.00154641
Br      17.39395757      24.28573584      14.79772783      -0.00082844      -0.00181843       0.00450760
Br      15.17196212      16.66091841      14.08493919      -0.00451417      -0.00573211       0.00101844
Br      17.46542441      16.92207327      10.22998892      -0.00087011      -0.00056914       0.00078085
Br      17.71892455      19.94923810      13.26627742       0.00353455       0.00380437       0.00227194
Br      18.29716658      25.15956582      32.74941245       0.00061478      -0.00155851       0.00085031
Br      17.33246761      13.05909787      31.10543212       0.00406195      -0.00039082      -0.00313552
Br      20.43750664      11.26869710      28.22753524      -0.00002301       0.00037191       0.00368734
Br      19.82325363      15.91814951      30.02523519       0.00030993      -0.00067748      -0.00104286
Br      13.88685768      11.60222680      23.01788528      -0.00060398      -0.00170835      -0.00402475
Br      13.87975864      14.73509317      25.10250007      -0.00164459       0.00036699       0.00648301
Br      12.22769647      30.60989630      32.90722718      -0.00204000      -0.00164286       0.00697739
Br      32.40374153      32.07776307      21.84305962       0.00228961       0.00081354       0.00040248
Br      15.00063140      13.65017984      34.75273554       0.00144938      -0.00022174       0.00279523
Br      31.84682998      31.18482691      15.78554688       0.00026271      -0.00174893      -0.00383081
Br      33.23768962      25.34952857      22.46670618       0.00453191       0.00761993      -0.00224954
Br      13.87099537      24.28704816      33.15294359       0.00306347      -0.00104976       0.00481588
Br       9.12785163      15.76587787      13.56798899       0.00334217      -0.00127506       0.00009808
Br      34.46310974      20.06226818      28.80106187       0.00295036       0.00169147      -0.00055439
Br      16.97974233      11.94981470      26.01834174      -0.00470472       0.00050132       0.00016040
Br      27.05615408      18.21326978      12.74657516      -0.00389886       0.00197106      -0.00217345
Br      29.26896255      18.19138956       8.93025648       0.00778683      -0.00142709       0.00604752
Br      35.16516531      15.53856409      29.18581751       0.00062813       0.00015005      -0.00223781
Br      29.39885582      21.43491943      11.84736707      -0.00755816      -0.00345058      -0.00272616
Br      14.93977924       9.54420854      31.99045887       0.00082936       0.00065057      -0.00115318
Br      19.73609944      12.61652276      22.27557277      -0.00027047      -0.00116705      -0.00619899
Br      19.24181847      15.31386062      25.69482270      -0.00019209       0.00076023       0.00139970
Br      27.87194874      12.33293461      12.76511239       0.00367780       0.00154571       0.00005906
Br      15.88541962      11.11206558      14.02526204      -0.00662838      -0.00259214       0.00431604
Br      29.79891084      12.89224526       9.00268314       0.00233324       0.00111302      -0.00591242
Br      30.32230355      15.49023874      12.21959634      -0.00110070       0.00226769      -0.00095566
Br      20.30992820      10.08673436      31.98360952       0.00308254       0.00440571      -0.00114732
Br      11.62150399      22.68081734      15.47948382       0.00273672       0.00111225       0.00114322
Br       7.50285249      27.98697096      12.54307495       0.00096281      -0.00323334       0.00129466
Br      10.93366579      27.51734607       8.72373795       0.00210642       0.00171721       0.00248532
Br      10.66821620      31.07740087      11.63769144       0.00101639      -0.00063804       0.00261731
Br      32.81954310      32.40716252      27.19144135      -0.00065152       0.00158011       0.00234884
Br      21.13845173      16.57002709      12.48135236       0.00047181      -0.00031333      -0.00640633
Br      24.02461043      17.73507983       9.47083133      -0.00521194      -0.00362162       0.00762179
Br      23.68619696      20.74640669      12.66873322      -0.00018226      -0.00110062      -0.00105512
Br      21.92714365      11.37235149      14.02773294       0.00448051      -0.00538024       0.00970048
Br      24.52258759      12.00567534       9.83371161       0.00439166      -0.00680039       0.00105353
Br      24.52978148      14.75644057      13.18029588      -0.00163045       0.00217190      -0.00210770
Br      30.63799487       9.46289881      11.94725852      -0.00041263      -0.01025504      -0.00121257
Br      10.01089017      25.58868101      18.35562934       0.00464921       0.00384625      -0.00182415
Br      25.05328464       8.81212123      12.30401653       0.00061752      -0.00123501      -0.00085521
Br      18.37905835      11.15342878      10.66492872       0.00318344       0.00229150       0.00364371
Br      18.45669519      14.01760299      14.04722411      -0.00616758      -0.00108067      -0.00321468
Br      14.31525441      22.60638650      12.55416504       0.00329544       0.00411959      -0.00009012
Br      31.38176560      30.10793091      10.20625960      -0.00302856      -0.00021889       0.00343020
Br      17.44368694      26.57437974      18.61453602      -0.00234170       0.00188635      -0.00267616
Br      32.57480590      25.59251865      16.18342569       0.00310408      -0.00294307       0.00846425
Br      19.52836594      28.55885107      11.18878050      -0.00283259       0.00735041      -0.00366773
Br      22.38333938      28.94862350       7.93937875       0.00265759       0.00054879       0.00507553
Br      21.94089037      32.32134024      10.34368176       0.00111496       0.00331156      -0.00261620
Br      20.33482201      22.58923504      11.91847056      -0.00789166      -0.00400160      -0.00296392
Br      23.01562525      23.37498192       8.91056652       0.00158837       0.00068635       0.00177504
Br      22.98514903      26.69252677      11.94480012       0.00192379      -0.00385912      -0.00351727
Br      27.50737698      18.74290260      17.27813245      -0.00807679      -0.00107038      -0.00802939
Br      31.78856615      19.00332701      14.47809128      -0.00250198       0.00883000       0.00178028
Br      30.20109478      22.00678540      16.57019447      -0.00821572      -0.01185710       0.00410422
Br      28.39901252      12.59075820      17.95230742       0.00140034      -0.00342208       0.00040988
Br      31.94344997      12.73680834      14.88282283      -0.00335370      -0.00355817      -0.00127860
Br      30.79030073      15.99036326      17.56928583       0.00033813       0.00049886      -0.00431400
Br      31.79692013      10.06879278      18.53946198       0.00093028      -0.00203450       0.00002125
Br      10.68569362      18.24982466      31.65542538       0.00221309       0.00161398      -0.00195744
Br      19.23172417      30.61805794      32.31515746      -0.00015091      -0.00107822       0.00025006
Br      25.41384902      29.68977268      11.01572913      -0.00164878      -0.00103988      -0.00112025
Br      33.72202012      27.08427063      27.85853562      -0.00068271       0.00385517       0.00317465
Br      25.93443059      30.08793715      16.55665295       0.00027947       0.00221220       0.00202374
Br      28.34335348      30.28761306      13.27081704       0.00795719       0.00292619      -0.00025469
Br      28.52578695      33.80243322      15.87197480       0.00387219      -0.00750853      -0.00119370
Br      26.79820147      24.34849597      17.60401228      -0.00951283      -0.00186548       0.00295419
Br      28.81471823      24.70586845      13.90871816       0.01279531      -0.01065340       0.00425032
Br      29.05996734      27.85166523      16.19297531       0.00195395      -0.00056640      -0.00620192
Br      28.02699488      19.31841951      24.60319666      -0.00008956       0.00155950      -0.00118867
Br      30.20411085      19.24910629      20.36169950      -0.00760891       0.00996879      -0.00595893
Br      29.70980354      22.47235008      22.67985972       0.00539196       0.00501231       0.00771406
Br      28.73183037      13.42602930      23.86942121      -0.00243265       0.00085567      -0.00176897
Br      31.19953407      13.35153314      20.91948168      -0.00195924      -0.00075806      -0.00685220
Br      30.84835923      16.63703442      23.77722678       0.00009160      -0.00069897      -0.00192690
Br      27.58972195      29.37952619       7.41997809       0.00527099      -0.00398579       0.00103332
Br      27.81636320      33.20225239      10.20205588      -0.00203411      -0.00193062      -0.00078214
Br      32.35268031      10.83759853      24.40665940       0.00128271      -0.00379641       0.00071943
Br      19.08002235       8.06704419      13.37675773      -0.00083151      -0.00256558       0.00100491
Br      26.10938348      24.02649983      11.38464725       0.00421980      -0.00438793      -0.00005803
Br      12.25085887      15.83169435      10.78891703       0.00299576       0.00132899       0.00300089
Br      28.65577604      23.91662098       7.96889653       0.00350108      -0.00044748       0.00139433
Br      15.26683114      31.24917714      30.41828485       0.00058084       0.00177228       0.00218875
Br      17.82835106      29.91616488      26.28306522      -0.00030212       0.00083637       0.00025544
Br      18.42935074      33.56278893      28.80369616      -0.00064483       0.00196090      -0.00136849
Br      26.47037929      31.04438611      22.54365598      -0.00761408       0.00337282       0.00046209
Br      29.07168414      30.79238887      19.22328382      -0.00078332       0.00017253      -0.00917675
Br      28.94461718      34.41462132      21.67916503      -0.00291596       0.00498299       0.00205916
Br      27.32971261      25.38851052      23.48429769       0.00501076       0.00041239       0.00432446
Br      29.84341926      25.25928263      19.79034029       0.00325824       0.00087029       0.00486381
Br      30.23285357      28.45735072      22.15868758       0.00367970      -0.00277689       0.00213108
Br      28.50236579      19.75592548      29.02026036       0.00098583      -0.00019654      -0.00034275
Br      31.36859656      20.69085789      26.08215611       0.00012625      -0.00137734      -0.00033143
Br      31.10003478      23.34576280      28.88546764      -0.00140193       0.00273651       0.00044072
Br      29.33955860      14.22563851      29.72807990      -0.00334927      -0.00181902      -0.00048189
Br      31.77541946      14.44235990      26.75555349       0.00421857       0.00229946       0.00400807
Br      31.51409610      17.33595529      29.19003336       0.00431395      -0.00158872      -0.00400424
Br      28.28621883      27.23768055      10.94009331       0.00503764      -0.00052638       0.00378793
Br      12.52029341      29.97532058      26.69424463      -0.00006871      -0.00025685      -0.00121526
Br      32.63922017      11.48831658      29.58851429       0.00183340       0.00511359      -0.00266191
Br      33.52070879      19.25462533      18.00110999      -0.00602414      -0.00258902       0.00432826
Br      11.87976245      19.22594531      13.59223225       0.00352698      -0.00352146       0.00506573
Br      11.95427369      33.34564241      29.21761653      -0.00214296       0.00392957      -0.00148590
Br      15.72178569      24.29507246      29.42150133      -0.00126159      -0.00102703      -0.00014643
Br      18.54111694      24.05056446      26.65615058       0.00068594       0.00014887       0.00029035
Br      17.44350692      27.73595662      29.62437217       0.00269922       0.00131611       0.00074374
Br       8.36725098      21.36143480      13.13305183      -0.00313760      -0.00148078       0.00187779
Br      27.01043750      31.23233745      28.37914401      -0.00100804       0.00137631       0.00111968
Br      29.33917077      31.59596874      25.12146544       0.00061383       0.00180543      -0.00081292
Br      29.09285302      35.06217873      27.19670601      -0.00272035       0.00184208      -0.00017160
Br      27.82202644      26.01914437      29.50763003      -0.00191072      -0.00087866      -0.00488171
Br      30.31224356      25.82211806      25.84397663      -0.00450793       0.00326572      -0.00247504
Br      30.25481526      29.22815447      28.12939160       0.00125503       0.00360772       0.00150618
Br      10.54512861      10.74824664      20.33248419      -0.00387156      -0.00197104       0.00067943
Br      13.90765614      10.78720810      17.16767814       0.00792151       0.00227100       0.00401553
Br      31.31685088      20.25521434      32.16827893       0.00159937       0.00141686      -0.00135793
Br      12.93935080      13.99788071      19.11899553       0.00083759      -0.00355431      -0.00105592
Br      32.02777718      15.03044656      32.72767587       0.00022485       0.00124687      -0.00308359
Br      34.44117392      13.86256583      18.34865689       0.00053254       0.00170011      -0.00117513
Br      14.17256480       8.20329705      20.42061405      -0.00057864      -0.00225724       0.00226745
Br      10.01452865      23.51111189      30.58362982       0.00051753      -0.00089845      -0.00046554
Br      12.36467047      24.03215380      27.33763053      -0.00100315      -0.00150559      -0.00257170
Br      19.87173915      19.20426320      33.14136251       0.00097050       0.00233501      -0.00151378
Br      13.04550830      27.36789814      29.78286706      -0.00470137      -0.00199109      -0.00346101
Br      20.39699306      13.81898938      33.86251828       0.00245081      -0.00156347      -0.00064734
Br       8.88350624      29.04482016      24.28346954      -0.00130245      -0.00005442      -0.00104377
Br      30.53410136      31.96578670      31.05461245      -0.00178571       0.00304674      -0.00294189
Br      11.47178302      28.82434077      20.74856458       0.00075527      -0.00056527       0.00110980
Br      31.34525317      27.69260692      31.61299858      -0.00020948       0.00076988      -0.00307542
Br       7.88582807      28.87368691      17.72152800       0.00449663      -0.00135679       0.00076660
Br       9.96715446      10.18393552      15.01456813       0.00110346       0.00053329      -0.00143565
Br      32.02392510      24.84631871      10.72265553       0.00069666       0.00054000      -0.00675647
Br      12.93673874      10.37769805      11.27186305       0.00221360      -0.00105255      -0.00390235
Br      13.99634680       8.88538154      26.60741852       0.00124043       0.00442751      -0.00221259
Br      12.70459056      13.34036857      14.47857051       0.00176609       0.00325282      -0.00203774
Br      11.53162888      21.18612337       9.70279905       0.00113492       0.00097305       0.00146848
Br      10.97014019      25.12676251      12.43480672       0.00234976       0.00229000       0.00222775
Br      10.95126590      32.48836234      23.14330490      -0.00083831      -0.00103541       0.00045638
Br      10.97371825      28.11056207      14.76508179       0.00003460       0.00166782       0.00317641
Br      10.89748180      31.59887143      17.35197966       0.00074094       0.00061435       0.00207530
Cs      20.88801115      20.74927586      15.52539874       0.00048673      -0.00692125      -0.00823140
Cs      21.78264178      14.58529606      15.77984163      -0.00003754      -0.00562393       0.00489066
Cs      22.56675551       8.68113952      16.35874918       0.00195431      -0.00088269       0.00046071
Cs      15.78923303      14.01440071      16.62172946       0.00477883       0.00258506      -0.00066967
Cs      20.06299741      26.71116871      14.44693169       0.00583291       0.00011069       0.00285818
Cs      21.67745903      21.11804127      21.90619508      -0.00194661      -0.00045368       0.00195196
Cs      22.17381858      15.36281495      20.72289174      -0.00075785      -0.00588531      -0.00294740
Cs      12.09863315      15.70383660      33.95278034      -0.00050484       0.00211239      -0.00283924
Cs      34.19412731      11.38086515      21.03481465       0.00007886       0.00019322      -0.00357534
Cs      14.52525330      26.28923650      20.86712114      -0.00127198      -0.00345784       0.00335618
Cs      20.20508032      32.54588765      20.40152220      -0.00044145      -0.00045314       0.00057408
Cs      20.72339851      26.62307574      20.47783268      -0.00169255      -0.00393528      -0.00282294
Cs      21.99665940      22.36163731      26.89518915       0.00083024      -0.00054781      -0.00263737
Cs      22.56104149      15.92557723      27.25224312      -0.00207959      -0.00148885       0.00059545
Cs      24.24145515      10.49963252      28.10424899       0.00148605       0.00038439      -0.00298090
Cs      15.35289138      27.71796239      32.54678198       0.00317777       0.00077119       0.00359796
Cs      14.68878901      19.23184014      11.00588810       0.00420422      -0.00320825      -0.00051814
Cs      16.32632263       8.00272255      17.30927697       0.00416075       0.00299628      -0.00076616
Cs      16.00709137      21.25348556      27.16990101       0.00303456      -0.00045738       0.00092247
Cs      21.04830194      27.31654451      26.37061210       0.00280683       0.00141166      -0.00082869
Cs      22.63872533      16.71870307      32.44841135       0.00388758      -0.00054542      -0.00139775
Cs      30.59216092      32.99857565      12.75213783      -0.00138706      -0.00093311       0.00191114
Cs       9.54931667      14.88682945      27.07887403       0.00026798       0.00121685      -0.00312720
Cs      16.61893744      15.23042412      28.12337446      -0.00115708       0.00317495       0.00221022
Cs      13.63423733      30.63442833      14.29179169       0.00243605       0.00096832      -0.00016240
Cs       9.91262816      13.20616130      17.19437887      -0.00078356       0.00274019      -0.00187192
Cs      14.00968351      25.71555700      14.69083831      -0.00153616       0.00079088       0.00039258
Cs      33.33801476      30.10729088      29.95305482      -0.00107902       0.00197867       0.00145382
Cs      22.66153710      22.01839459      31.93300346       0.00472727      -0.00162010      -0.00237951
Cs      32.17868097      28.00393982      19.08337805       0.00399320       0.00060867       0.00184011
Cs      10.25066649      12.71168072      11.92049018       0.00064787       0.00177173       0.00079128
Cs      33.37362510      23.74584321      26.01652146       0.00494587       0.00315502       0.00127314
Cs       8.46212337      30.72957978      14.56373525       0.00174621       0.00183675       0.00030888
Cs      34.81080681      12.45642947      26.86046609      -0.00168779       0.00377901      -0.00154451
Cs      26.98925111      15.32008809      10.31022054      -0.00549791      -0.00151756      -0.00312520
Cs      29.33899975      11.54135323      27.05398811      -0.00053376       0.00023159       0.00219152
Cs      17.09455447       9.67846683      22.74399371      -0.00369768      -0.00146456       0.00152674
Cs      27.67213644      10.01431986       9.96899319      -0.00473632      -0.00327706      -0.00220597
Cs      31.22154789      27.62022657      13.19925902      -0.00042124       0.00219934      -0.00285080
Cs      31.36478598      34.56769350      24.55050970      -0.00070123       0.00170562       0.00220958
Cs      30.54101979      27.17804243       8.08049426       0.00359416      -0.00203183      -0.00017014
Cs      21.37198297      13.20417799      11.03585729      -0.00292972       0.00357357      -0.00552279
Cs       9.34551629      19.65920608      16.35152110      -0.00111578      -0.00185972      -0.00115230
Cs      28.92022022      17.35542276      31.96409303      -0.00170247       0.00012827      -0.00144691