416
Properties=species:S:1:pos:R:3:forces:R:3 energy=-155671.015625 pbc="F F F"
Br      13.72189369       7.26309435      14.32385475      -0.00058166       0.00099717      -0.00145359
Br      32.93643619      18.55917703      10.54903216       0.00842377       0.00240735      -0.00031852
Br      16.99596552      21.95441931       9.12853876      -0.00009178      -0.00216600      -0.00083819
Br      16.16998066      18.30146376      25.38575675       0.01031979       0.00376882       0.00243010
Br      18.30385908      17.71798782      21.64468715      -0.00068644       0.00280621      -0.00551705
Br      33.77004561      13.06700123      11.72846766      -0.00214956       0.00154080      -0.00010236
Br      19.20836706      21.24148761      23.96093267       0.00279884      -0.00311787       0.00247254
Br      13.94663561      18.58870858      34.03439546       0.00181775      -0.00126018      -0.00635703
Br      11.10252770      12.40579177      31.54750308       0.00083721      -0.00244503      -0.00157050
Br      14.19316195      12.20928143      28.66130329       0.00078773       0.00427573      -0.00680828
Br      13.99096959      15.35251367      31.01824813       0.00179261      -0.00151261       0.00222992
Br       9.23857526      29.48668753      29.81030539       0.00016092       0.00031562      -0.00086870
Br      15.65168655      17.21649209      18.21016232       0.00244121      -0.00077884      -0.00072115
Br      21.67214659      17.93864731      18.97025125       0.00390915       0.00348993      -0.00069538
Br      23.57275000      18.02940931      15.13022139       0.00082496      -0.00097749       0.00171594
Br      24.32301747      21.27030937      17.80293033      -0.00319552       0.00238686      -0.00448639
Br      22.35731447      12.30947795      18.99263271      -0.00321725       0.00037601      -0.00046747
Br      25.20047248      11.52123955      15.77919292       0.00219084      -0.00077985      -0.00588997
Br      25.14429703      15.24171308      18.19358067       0.00125643      -0.00254988       0.00121725
Br      19.01641754      16.98822769      15.63535154      -0.00108201      -0.00161241      -0.00208035
Br      12.74727299      18.00963922      28.10321532      -0.00150996       0.00042592      -0.00054813
Br      18.07835654      20.49779518      18.16973068       0.00350930      -0.00675501       0.00074163
Br      25.29222554       9.23095027      19.25341421       0.00219026       0.00622019      -0.00307537
Br      33.91898489      19.83920432      22.50221357      -0.00380328      -0.00198384       0.00194879
Br      16.51406585      10.76663745      19.56507152      -0.00091834       0.00033566       0.00187899
Br      10.28486784      16.89938849      24.98191661      -0.00339192      -0.00188685       0.00008485
Br      13.50195242      17.35819411      22.10146146       0.00645218      -0.00107208      -0.00186591
Br      34.81172209      14.08824460      24.05808018       0.00152634       0.00186536      -0.00065858
Br      19.84789576      30.37171396      17.16010855       0.00127460      -0.00123517       0.00282007
Br      22.41805479      30.17217383      13.77697433       0.00003556      -0.00080451      -0.00388763
Br      22.99623950      33.22881513      16.44489427      -0.00041464      -0.00057403       0.00062825
Br      20.78649065      23.50502975      17.37527661      -0.00420435      -0.00335430      -0.00021308
Br      23.94963846      23.78970198      14.34159762      -0.00055775      -0.00005453       0.00163803
Br      23.10421417      27.15909652      16.86681114      -0.00079428      -0.00413229       0.00049583
Br      22.11013629      18.11088247      23.96516766      -0.00597510       0.00093323       0.00272141
Br      25.40152221      18.69657230      20.89444264      -0.00325535      -0.00014474      -0.00018545
Br      24.25139004      21.95275792      23.71862283      -0.00649381      -0.00554959       0.00078824
Br      22.79343746      12.90313841      24.93259420       0.00123160       0.00499027      -0.00300339
Br      25.69676429      12.57043231      21.71724676       0.00143846       0.00088396       0.00124621
Br      25.82712536      16.06919247      24.00189997       0.00057424      -0.00267745      -0.00033630
Br      13.48707251      28.11126066      11.95087439      -0.00348511      -0.00128198       0.00109085
Br      15.95631182      28.88482330       8.31984749      -0.00115677       0.00085413      -0.00311966
Br      26.20975303      10.17650523      25.36577336      -0.00303149       0.00268622      -0.00381967
Br      16.07196057      31.72132924      11.27699718      -0.00080145      -0.00212423       0.00120361
Br      16.72815465      25.65695003      10.97248053      -0.00376834       0.00010804      -0.00156647
Br      12.44970639      20.56989660      24.88414275       0.00327257       0.00095021      -0.00057174
Br      19.15997701      11.22163237      16.30393193       0.00265593      -0.00187124      -0.00048671
Br      14.54136509      30.94269086      23.53475926      -0.00152893       0.00048458      -0.00059740
Br      17.26210196      29.89421989      20.40107648       0.00137172       0.00193964      -0.00072397
Br      17.84055909      33.22837216      23.20079535      -0.00058401      -0.00042827       0.00282414
Br      20.62375551      30.07893734      23.23658548       0.00525155       0.00071798       0.00153217
Br      23.25830113      30.51531825      19.79799968       0.00238898       0.00136852      -0.00226045
Br      22.54261908      33.81298725      22.67616235       0.00195929      -0.00118630       0.00245613
Br      21.35016713      25.01185246      24.01388628       0.00051035       0.00338584       0.00122084
Br      23.51737111      24.74045853      20.37149318       0.00080145      -0.00240339      -0.00453891
Br      24.37853574      28.00461878      23.06852925       0.00238462       0.00265834      -0.00021384
Br      22.56538471      19.34964315      30.57968850       0.00031057       0.00174410       0.00064668
Br      24.95694506      18.97275610      26.97531666      -0.00586143       0.00058589       0.00055838
Br      25.21975392      22.57406688      29.29709605      -0.00057616      -0.00300593      -0.00279393
Br      23.10709125      13.39586454      30.75690673       0.00454250      -0.00010726      -0.00112680
Br      25.90178300      13.81529643      27.65667265       0.00148001      -0.00233780      -0.00363668
Br      25.73642669      16.74517242      31.00656254      -0.00631029       0.00378478      -0.00232349
Br       9.61148067      23.75129032      25.30794977       0.00167814       0.00268414      -0.00163047
Br      11.89564147      23.12278990      21.71178781       0.00286420      -0.00148260       0.00333152
Br      26.54465629      10.70790757      30.75861338      -0.00034918       0.00035968      -0.00130043
Br      12.66185346      26.63232861      24.21510986      -0.00142314      -0.00495007       0.00065268
Br      13.43096562      21.30546306      30.57416161       0.00911467      -0.01180412      -0.00312974
Br      18.75840433      14.52663916      18.97733887       0.00031514      -0.00280772      -0.00199637
Br      15.51541725      23.31618115      23.93801358      -0.00759105      -0.00095459       0.00261733
Br      18.37294886      23.87131235      20.96790332       0.00069667      -0.00103677      -0.00332631
Br      17.54654816      27.11195511      23.69360895      -0.00110108      -0.00082970       0.00054471
Br      21.16062949      30.85683832      28.82820605      -0.00374062      -0.00051966       0.00065763
Br      23.96534493      31.14337413      25.77924060       0.00085447       0.00285094       0.00012282
Br      23.35964005      34.46224781      28.36298856       0.00292768      -0.00286643       0.00039548
Br      21.95349741      25.23731670      29.24540110      -0.00763875      -0.00185153       0.00112421
Br      25.01682280      25.42336210      26.22430523      -0.00052098      -0.00084003       0.00536852
Br      24.68676211      28.57173709      29.01506189       0.00228924       0.00345774       0.00024139
Br      16.50762007      18.62624021      30.41171220      -0.00256866       0.00381799      -0.00005863
Br      26.09987946      20.50383827      32.79032731       0.00433204       0.00205016       0.00507440
Br      19.71400162      19.03418380      27.42554640       0.00466727      -0.00087799       0.00926374
Br      19.35563481      21.96120112      30.68519433       0.00328673      -0.00597048      -0.00079767
Br      20.12006150       8.70320233      19.79111650       0.00213865      -0.00444088      -0.00032051
Br      26.40002082      13.50727333      33.77742028      -0.00125746       0.00173993       0.00535587
Br       8.89975926      21.81178460      18.99673581      -0.00303640       0.00298500      -0.00021148
Br      20.51601880       9.29707414      24.99193094      -0.00029401       0.00416882       0.00253733
Br       9.89661340      16.46845252      19.98086087      -0.00735369      -0.00412583      -0.00021920
Br      23.99866669      31.66282382      31.87063750       0.00067612      -0.00008082      -0.00087139
Br      11.80238978      16.40605579      16.34354658      -0.00470126      -0.00123464      -0.00256102
Br      12.54019802      19.87407187      18.82951447       0.00004298       0.00377541      -0.00067888
Br      24.74539343      25.85210378      32.34158396       0.00286080      -0.00128799       0.00037155
Br      14.06656270      28.48504265      17.78993501      -0.00016357       0.00035260      -0.00071781
Br      16.80600587      28.63629620      14.42512510       0.00120628      -0.00013664       0.00657793
Br      16.10545017      32.16925360      16.79211665       0.00076297       0.00031947      -0.00035716
Br      14.78119216      23.58461599      18.37264470       0.00426593       0.00107919      -0.00244359
Br      10.83853193      11.44915342      25.92944111       0.00190299       0.00391349      -0.00130211
Br      17.28893944      23.50020823      15.01202706       0.00316134       0.00254185      -0.00456403
Br      15.18899230      16.52026350      13.42616609       0.00448702      -0.00028750      -0.00099603
Br      17.25759598      16.67098739       9.78889693       0.00293217       0.00154473       0.00492251
Br      17.76806059      19.89507823      12.72452287       0.00304106      -0.00517638       0.00218435
Br      19.51460264      25.70417338      32.85578084       0.00033232      -0.00058178       0.00464278
Br      17.12937440      12.82593685      31.18166703      -0.00137432      -0.00222756      -0.00236503
Br      20.15163473      11.78563207      28.29920939       0.00048891       0.00423764       0.00316738
Br      19.78568307      15.84952866      30.41424664      -0.00136047      -0.00139984      -0.00056506
Br      13.91105350      11.32155224      22.74327668      -0.00104649       0.00031235      -0.00287887
Br      13.88618973      14.63165407      25.36915519      -0.00173962      -0.00437417      -0.00297788
Br      11.86740788      30.89326473      33.11749543      -0.00130954      -0.00585606      -0.00099505
Br      32.35614575      31.79295154      21.71676267      -0.00470184      -0.00464760      -0.00579224
Br      14.62961767      13.16251048      34.60247838       0.00139853      -0.00084002      -0.00322583
Br      31.84475392      31.63126560      15.83456594       0.00650422      -0.00313232       0.00268065
Br      33.04150737      26.49985690      22.67272081       0.00123509      -0.00163037       0.00322879
Br      13.43809758      24.03372607      33.71337385       0.00145635       0.00386882      -0.00002140
Br       9.11772123      15.67009607      13.16239144      -0.00587412      -0.00003410       0.00104231
Br      34.67991603      20.08065169      29.21047925      -0.00119104       0.00121854      -0.00136557
Br      16.92597722      11.44443826      25.58141034      -0.00209999      -0.00025055      -0.00130401
Br      27.05902066      17.91604804      12.32489654       0.00188700       0.00126684       0.00046287
Br      29.45252595      17.80955813       8.55589110      -0.00193537       0.00205082       0.00044174
Br      35.05465546      14.84661662      29.49011497       0.00385687       0.00258621      -0.00412853
Br      29.38245830      21.19771960      11.29510068       0.00371119      -0.00445739      -0.00128625
Br      14.69610929       9.40292937      31.79016469       0.00310521       0.00019580      -0.00005830
Br      19.57920741      12.28791027      22.25701192       0.00218041       0.00219456       0.00123405
Br      19.20034345      15.24761621      25.34130214      -0.00258734       0.00058975      -0.00253798
Br      27.79761957      12.17523551      12.57017157      -0.00258212      -0.00052822      -0.00187365
Br      15.94034732      10.86799714      13.62968650       0.00620697       0.00036294      -0.00309074
Br      30.11485050      12.30525120       9.12307597       0.00217684       0.00352565      -0.00284501
Br      30.31662269      15.29348313      12.13794910      -0.00328434      -0.00641000      -0.00145686
Br      20.39022001       9.98999541      32.12135040       0.00306761      -0.00232847      -0.00580682
Br      11.60189740      22.57013968      15.67273409       0.00061796       0.00101750       0.00157792
Br       7.44959526      27.74423732      12.83967544       0.00018944       0.00267472       0.00024208
Br      10.62235156      27.79194477       8.99984894      -0.00021419       0.00070064      -0.00226501
Br      10.48002438      31.06312921      12.15401400       0.00038533       0.00114718      -0.00125197
Br      33.07322461      32.29063002      27.28313768      -0.00111534       0.00292913       0.00103918
Br      21.01033857      17.14907866      11.64885543      -0.00281839       0.00037167       0.00135255
Br      24.31755400      16.85088729       9.21241273      -0.00220500       0.00199184      -0.00162109
Br      23.54085965      20.45556577      11.58068231       0.00045559       0.00084156       0.00196522
Br      21.93887682      11.17490847      13.35901230      -0.00362791      -0.00088591       0.00052637
Br      24.38972870      11.15985143       9.75716497       0.00247734      -0.00176920      -0.00199087
Br      24.35662811      14.52119004      12.78641567      -0.00002226       0.00077271      -0.00340773
Br      30.69413638       9.17662267      12.32462512      -0.00013613       0.00075799       0.00047240
Br      10.33989080      25.58113602      18.54248493      -0.00202044       0.00325901      -0.00058699
Br      25.43728160       8.48302735      12.72506586       0.00093498       0.00049154      -0.00245592
Br      18.89353536      10.22477592      10.27376386       0.00010404      -0.00082357      -0.00438749
Br      18.60940377      13.82327071      12.64068133       0.00033254       0.00403648      -0.00166002
Br      14.26839153      22.48772531      12.43773924      -0.00105897       0.00217777       0.00185538
Br      31.34900873      30.23766613      10.22771904      -0.00287512      -0.00321396       0.00042607
Br      18.03259517      26.54635152      17.96382026       0.00219835       0.00664090       0.00266899
Br      32.58784757      25.17896682      15.88762527      -0.00605050       0.00083270       0.00440981
Br      19.38304293      28.92825392      11.20260584       0.01029465      -0.00042580       0.00108414
Br      22.15047476      29.02570034       7.80927807      -0.00104147       0.00100469       0.00104951
Br      21.86503899      32.45062741      10.12795437      -0.00165628      -0.00085607       0.00102105
Br      20.22648680      23.31190699      12.04827748       0.00292300      -0.00184094      -0.00216467
Br      22.40136297      23.21416380       8.48015066       0.00018340      -0.00287462       0.00217151
Br      22.89572367      26.51875807      11.30662886      -0.00083628       0.00232593      -0.00070258
Br      27.46135475      18.50643497      17.01824198      -0.00612480      -0.00085770       0.00615588
Br      31.19419467      18.70818810      14.33751463       0.00012886      -0.00150419      -0.00207273
Br      30.03396892      21.89263931      17.03556558      -0.00249061       0.00330567       0.00220037
Br      28.39024625      12.21620838      18.36579348       0.00148605      -0.00155878      -0.00369500
Br      30.95456666      12.54856459      15.13796219       0.00100783       0.00005399       0.00195918
Br      30.65695488      15.88770289      17.67426685      -0.00029394      -0.00194655       0.00184478
Br      31.87496522      10.06489201      19.08941448       0.00442603      -0.00448884       0.00024236
Br      10.53199981      18.13561336      31.72773839      -0.00052341       0.00124660       0.00047141
Br      18.95580264      31.00649144      32.37459863       0.00031265       0.00077313       0.00017133
Br      25.34192330      29.74824649      10.80889340      -0.00986262      -0.00119579       0.00264187
Br      33.73413122      26.98120999      27.79760842       0.00462278       0.00442022       0.00296462
Br      25.91775870      30.18947824      16.45558477       0.00090846       0.00307610       0.00254151
Br      28.45925866      30.23518728      13.23301651       0.00097458      -0.00040514      -0.00211508
Br      28.35379867      33.85273531      15.79234313       0.00570506      -0.00352851      -0.00212237
Br      26.72189401      24.81269366      17.50595144       0.00402778       0.00207504       0.00161970
Br      28.91739160      24.53935145      13.77088778       0.00340106       0.00268756       0.00313866
Br      29.65196970      27.95945913      16.53769579      -0.00392861       0.00603187      -0.00372066
Br      28.01126302      19.69773655      24.13520364       0.00273339       0.00042432       0.00089129
Br      30.24758891      19.22777356      20.36862039      -0.00473755       0.00566636       0.00889715
Br      30.91590037      22.77653904      22.95375831      -0.00215735      -0.00013384       0.00389079
Br      28.82083993      13.22693724      24.43780571      -0.00065731      -0.00208158       0.00053410
Br      31.26655152      13.64973468      21.08950181      -0.00032259       0.00043821      -0.01041525
Br      31.25754987      16.74981348      23.80161792       0.00119027       0.00000915      -0.00022671
Br      27.71663150      29.54441826       7.27182015      -0.00255349      -0.00213205      -0.00246502
Br      27.67146688      33.15314312      10.26355139      -0.00198212      -0.00125393      -0.00007623
Br      32.33305319      10.76308094      24.27661645      -0.00317758       0.00157001      -0.00207856
Br      19.07030406       7.82134438      13.58184091       0.00056160       0.00047882      -0.00033333
Br      26.05264487      23.61370550      10.25432192      -0.00346303      -0.00011084       0.00468164
Br      12.05059370      15.73593685      10.30945726       0.00150828       0.00070962      -0.00563755
Br      29.32821895      23.93078887       7.68232509       0.00080099      -0.00232158      -0.00404200
Br      15.21264071      31.21453351      30.45417315       0.00031276      -0.00186330       0.00416263
Br      17.61020740      30.46434918      26.45955591       0.00018861      -0.00225901       0.00187887
Br      18.20414417      33.89161616      28.98378528      -0.00058914       0.00032900      -0.00311934
Br      26.29499554      32.26452825      22.36294542       0.00319368       0.00280413      -0.00480904
Br      28.92683084      31.17113788      19.16087365      -0.00479035       0.00231838      -0.00236645
Br      29.56965588      34.77989153      21.75467410       0.00287250      -0.00342781      -0.00030129
Br      27.22393116      24.75099296      22.48932490       0.00537139      -0.00063929       0.00397051
Br      30.53384715      25.20255099      19.64228522      -0.00120054       0.00406329      -0.00206599
Br      29.26786593      28.63429198      22.35000089       0.00409252       0.00606913      -0.00884169
Br      28.50724118      19.87543960      29.27667137       0.00502801       0.00123183       0.00201040
Br      31.88261212      20.28492498      26.18292936      -0.00510197       0.00240248       0.00261294
Br      31.19368529      23.34300949      28.91857684       0.00336435      -0.00809484       0.00152958
Br      29.03515801      14.28097352      30.22586400       0.00466035      -0.00337804       0.00228889
Br      31.63980391      14.17541847      27.05639905       0.00414863       0.00115703       0.00708545
Br      31.57808061      17.30712850      29.40083008       0.00165168       0.00586026      -0.00477622
Br      28.40580324      27.13980023      10.64355637       0.00283597      -0.00821165       0.00094185
Br      12.36412059      29.74232621      27.00135231       0.00162685       0.00305619       0.00404057
Br      32.08663523      11.31403120      30.08814607       0.00056408      -0.00147914       0.00084323
Br      33.48333063      19.18614698      17.62400683       0.00368694       0.00386747       0.00300358
Br      11.98033552      19.14449376      13.24042535      -0.00092784      -0.00177322      -0.00001462
Br      11.70916266      33.20263911      29.28603161      -0.00122644      -0.00181747      -0.00320728
Br      16.11332936      24.47750288      30.67681808       0.00152349       0.00071889      -0.00079835
Br      18.33097019      24.30271107      27.01857530       0.00107962      -0.00066633       0.00112519
Br      18.42327409      27.84389282      29.42245335       0.00049682      -0.00081339       0.00325120
Br       8.36428521      21.24512727      13.16055013      -0.00235883       0.00138554      -0.00020922
Br      27.13117954      31.85945035      28.49119473       0.00216889       0.00153108      -0.00114236
Br      29.44949297      31.80608761      25.10443606      -0.00186329       0.00279175      -0.00246100
Br      29.68967069      35.28287619      27.37262775      -0.00155309       0.00181004      -0.00055096
Br      27.97962491      25.90334931      29.58965500       0.00539516       0.00229727      -0.00170997
Br      30.01656740      25.92001584      25.67850662      -0.00338146      -0.00228157       0.00140664
Br      30.19202631      29.25796748      28.10109294      -0.00456216       0.00159769       0.00222604
Br      10.43467076      10.60399884      20.02299816       0.00104640       0.00369631      -0.00206819
Br      13.46194526      10.63123421      16.80755695      -0.00071260       0.00228010       0.00176187
Br      31.60481486      20.32033197      32.31684763      -0.00293925       0.00198027      -0.00016326
Br      13.33431569      13.86035429      19.54467049       0.00328965      -0.00249602       0.00086431
Br      32.02036401      14.98951044      33.04830130       0.00165354      -0.00058763       0.00287764
Br      34.29699673      13.72393804      18.22847929       0.00489070       0.00064730       0.00212244
Br      13.38169552       7.76134366      20.16826901       0.00008613       0.00250628       0.00189148
Br      10.09205984      23.74025996      30.70818732       0.00402471      -0.00251899      -0.00121933
Br      13.18715298      23.95778002      27.58958800       0.00084968       0.00067745      -0.00326674
Br      19.46162480      18.83481164      33.51170716      -0.00159778       0.00462584      -0.00830047
Br      13.14102840      27.35245656      30.25453219       0.00304389      -0.00175363      -0.00080074
Br      20.32281916      13.55155513      34.12734607      -0.00128259      -0.00095601      -0.00246181
Br       8.82143865      28.94163117      24.37596063      -0.00017409      -0.00123979      -0.00037581
Br      30.63975210      32.14908913      31.11289631       0.00065386       0.00201113       0.00056158
Br      11.55872775      28.97725509      21.04807657      -0.00191129      -0.00472307      -0.00210355
Br      31.36726174      27.26487052      31.56023153       0.00004668       0.00244461      -0.00179477
Br       7.94218075      28.90476647      18.37023508       0.00350767      -0.00184262       0.00054232
Br       9.98209988      10.13579795      14.41067498      -0.00597805      -0.00164100       0.00016715
Br      32.04683400      24.62694293      10.64250958       0.00361430       0.00041416      -0.00185151
Br      12.96836883      10.25861842      10.77001893       0.00089755      -0.00094658       0.00087937
Br      13.77062963       8.57135428      26.26986880      -0.00034913       0.00051440      -0.00339011
Br      12.72644707      13.20172328      13.84102143       0.00093027      -0.00426512      -0.00049176
Br      11.31462892      21.30063947       9.70167785      -0.00121222       0.00266263       0.00028192
Br      10.92409476      25.02989595      12.40505302      -0.00163731       0.00025874       0.00048249
Br      10.74791987      32.47566301      23.78198884       0.00170532      -0.00327870       0.00116009
Br      10.92300908      28.02643018      15.11530831      -0.00008426       0.00102169       0.00530507
Br      10.91317057      31.60929594      17.67758102       0.00096490      -0.00341229       0.00104521
Cs      20.75880653      20.50707078      15.15996091       0.00201558      -0.00167911      -0.00374787
Cs      21.97103770      14.66650024      15.93765988       0.00010311      -0.00231481       0.00243995
Cs      22.40272281       9.28564177      16.77520630       0.00336930       0.00080745      -0.00069461
Cs      16.14866219      14.08286173      16.25534647       0.00032831      -0.00154804      -0.00089255
Cs      20.07356344      26.19659249      14.71834532      -0.00158911      -0.00182744      -0.00346177
Cs      21.55477905      21.36975868      20.85209793      -0.00101838      -0.00213120       0.00230340
Cs      22.16018853      15.28629713      21.58998743       0.00165262      -0.00305088      -0.00107796
Cs      11.73363517      15.37367303      33.86665892       0.00347822      -0.00014652       0.00284677
Cs      34.39075438      11.59280965      21.20121526      -0.00258334      -0.00063287      -0.00044177
Cs      15.07747608      26.22075615      21.03074223       0.00062915      -0.00125606      -0.00167006
Cs      20.01925275      32.51796274      20.28953802      -0.00182575       0.00168982      -0.00076067
Cs      20.52189494      27.09985286      20.80456768       0.00111365       0.00061118       0.00224979
Cs      21.97097331      22.03825479      26.78112486       0.00149873      -0.00134178       0.00215905
Cs      22.49085287      16.17888873      27.28511541      -0.00666630      -0.00074646      -0.00017169
Cs      23.68129741      10.72679714      27.96515944      -0.00409549       0.00222282       0.00276206
Cs      16.20532619      27.85536489      32.35186708      -0.00096335      -0.00155180       0.00074780
Cs      14.61350197      19.21168763      10.45668261      -0.00287553      -0.00011385      -0.00011897
Cs      16.60913136       8.53860231      16.55910503      -0.00334451      -0.00060128      -0.00260270
Cs      16.08249799      21.35665610      27.53827962       0.00074139       0.00064758       0.00068466
Cs      21.74766643      27.91956848      26.39393558       0.00039667      -0.00101913      -0.00165707
Cs      22.52865661      16.54448591      32.93990213       0.00239968      -0.00254272       0.00282457
Cs      30.58695478      33.07218914      12.63479080      -0.00008330      -0.00486352       0.00058790
Cs      11.30171390      14.64967068      28.21327404       0.00037599       0.00138668      -0.00020226
Cs      16.64487175      15.49245136      28.04137214       0.00147079      -0.00036922       0.00054221
Cs      13.45793872      30.74845872      14.62168590       0.00131079      -0.00005275      -0.00086040
Cs      10.55146865      13.06366789      17.00782413       0.00208445      -0.00145321      -0.00097066
Cs      14.06119924      25.53857834      15.02528584       0.00201441       0.00069340       0.00095636
Cs      33.31170773      29.93872654      30.09677020      -0.00120396      -0.00199904      -0.00227635
Cs      22.75159112      22.71728868      32.19734884       0.00228762       0.00367304       0.00686387
Cs      31.84443003      28.62049972      19.57593895      -0.00141621      -0.00343497       0.00365165
Cs      10.08949096      12.55571516      11.45893156      -0.00259946      -0.00112107      -0.00112674
Cs      33.19007923      23.82310967      25.75129211      -0.00219032      -0.00333491      -0.00073078
Cs       8.23237773      30.51028477      15.02091019      -0.00221818       0.00334918       0.00127661
Cs      34.43759323      11.92196504      27.20843392      -0.00244221      -0.00047934       0.00114295
Cs      27.27206126      14.80946310       9.99737661       0.00274716       0.00142721       0.00235518
Cs      28.99966641      11.45882470      27.72069123      -0.00345438      -0.00229601       0.00209128
Cs      17.52610935       9.17154569      22.72903052       0.00131617       0.00037722      -0.00230300
Cs      27.92858076       9.51947116      10.07257901      -0.00263283      -0.00091247       0.00041879
Cs      31.23869176      27.56864726      13.19399492       0.00310168      -0.00508881      -0.00249149
Cs      31.89013613      34.49876536      24.64701304       0.00116772      -0.00100511      -0.00111237
Cs      30.75892368      27.32650891       7.93927571      -0.00119050      -0.00152714       0.00075474
Cs      21.61679290      13.79609777      10.33511356       0.00067633      -0.00059142       0.00154500
Cs       9.64334188      19.40895611      16.27844955       0.00057550       0.00086443      -0.00270039
Cs      29.11564570      17.54900328      32.22888071      -0.00297140       0.00044309       0.00045346